LAMMPS data file via write_data, version 15 May 2015, timestep = 162371

1032 atoms
14 atom types
1081 bonds
40 bond types
1970 angles
116 angle types
489 dihedrals
18 dihedral types
138 impropers
84 improper types

-6.0920324273299997e+01 1.7904313870799999e+02 xlo xhi
-6.0221869011700001e+01 1.5023767279510000e+02 ylo yhi
-6.0200362127299996e+01 1.5498933412080001e+02 zlo zhi

Masses

1 12
2 32.065
3 12
4 19
5 1
6 12
7 16
8 16
9 12
10 1
11 35.453
12 12
13 1
14 126.904

Pair Coeffs # lj/cut

1 0.066 3.5
2 0.25 3.55
3 0.066 2.5
4 0.061 2.85
5 0.03 2.5
6 0.105 3.5
7 0.14 2.9
8 0.21 2.96
9 0.07 3.55
10 0.03 2.42
11 0.3 3.4
12 0.066 3.5
13 0.03 2.5
14 0.6 3.7

Bond Coeffs # harmonic

1 335.095 1.84
2 335.095 1.82
3 208.599 1.44
4 208.599 1.36
5 208.599 1.43
6 137.609 1.38
7 208.599 1.37
8 335.095 1.83
9 208.599 1.39
10 208.599 1.42
11 335.095 1.85
12 335.095 1.81
13 50.1197 1.08
14 208.599 1.41
15 208.599 1.38
16 208.599 1.526
17 50.1197 1.09
18 155.153 1.44
19 810.308 1.21
20 208.599 1.45
21 208.599 1.4
22 208.599 1.46
23 208.599 1.47
24 208.599 1.48
25 208.599 1.49
26 208.599 1.51
27 208.599 1.53
28 50.1197 1.1
29 155.153 1.21
30 155.153 1.36
31 208.599 1.5
32 270.426 1.43
33 270.426 1.43
34 46.8999 1.4
35 46.8999 1.39
36 36.6867 1.08
37 29.9975 1.83
38 208.599 1.526
39 50.1197 1.09
40 703.744 2.16

Angle Coeffs # harmonic

1 60 111.44
2 60 120
3 60 88.7325
4 60 112.307
5 60 130.84
6 60 116.82
7 60 110.534
8 60 114.385
9 60 135.005
10 60 122.165
11 60 120.854
12 60 116.981
13 60 108.035
14 60 130.814
15 60 121.143
16 60 92.1608
17 60 108.544
18 60 126
19 60 111.463
20 60 128.523
21 60 120.008
22 60 114.616
23 60 123.815
24 60 121.56
25 60 113.4
26 60 119.25
27 60 111.421
28 60 122.874
29 60 89.099
30 60 118.068
31 60 122.727
32 60 126.066
33 60 118.962
34 60 112.534
35 60 128.501
36 60 118.113
37 60 89.4743
38 60 110.84
39 60 115.951
40 60 120.473
41 60 123.565
42 37.5 110.7
43 58.35 112.7
44 33 107.8
45 50 109.5
46 35 109.5
47 80 120
48 60 109.5
49 58.35 110.47
50 37.5 114.02
51 37.5 135.459
52 58.35 120.722
53 60 108
54 60 108.01
55 60 120.012
56 60 120.122
57 60 120.035
58 60 107.978
59 60 107.887
60 60 107.821
61 60 120.023
62 60 118.428
63 60 118.661
64 60 121.39
65 60 121.188
66 60 118.58
67 60 121.088
68 60 119.418
69 60 119.846
70 60 120.126
71 60 107.95
72 60 118.436
73 60 121
74 60 108.572
75 60 106.724
76 60 107.313
77 60 119.787
78 60 107.9
79 60 116.241
80 60 119.579
81 60 123.337
82 60 121.171
83 60 108.535
84 60 118.562
85 60 121.438
86 60 121.202
87 60 119.888
88 60 108.406
89 60 121.091
90 60 119.531
91 60 120.641
92 60 108.89
93 100 114
94 100 65.4896
95 100 117
96 100 65
97 60 113
98 37.5 108
99 60 115
100 37.5 120
101 60 120.554
102 55 122.46
103 55 126.7
104 55 116.9
105 55 134.54
106 55 122.46
107 55 126.7
108 55 116.9
109 55 134.54
110 63 120
111 75 120
112 63 120.386
113 33 109.5
114 37.5 110.7
115 33 107.8
116 58.35 112.7

Dihedral Coeffs # opls

1 15 0 0 0
2 -60 0 0 0
3 -2 3 0 0
4 60 0 0 0
5 0 0 0.636 0
6 1.74 -1.517 0.279 0
7 1.711 -0.5 0.663 0
8 0.65 -0.25 0.67 0
9 -4 2 0 0
10 -0.04 1.4745 -0.13 0
11 0 4 0 0
12 1.73 -1.517 0.279 0
13 -1.711 0.5 -0.663 0
14 0 0 0.336 0
15 -0.04 1.474 -0.134 0
16 -0.04 1.474 -0.134 0
17 -7.5 0 0 0
18 0 0 0.318 0

Improper Coeffs # harmonic

1 30 180
2 10 180
3 60 180
4 33 180
5 10 141.76
6 10 142.066
7 10 137.803
8 10 137.527
9 10 142.701
10 10 141.685
11 10 142.682
12 10 137.753
13 10 137.503
14 10 141.699
15 10 141.773
16 10 143.21
17 10 142.996
18 10 141.737
19 10 143.302
20 10 139.016
21 10 142.26
22 10 143.24
23 10 142.23
24 10 142.393
25 10 142.363
26 10 142.65
27 10 142.331
28 10 143.096
29 10 151.692
30 10 150.85
31 10 151.366
32 10 151.289
33 10 150.548
34 10 146.913
35 10 149.794
36 10 150.947
37 10 147.539
38 10 147.615
39 10 146.857
40 10 146.503
41 10 151.19
42 10 147.188
43 10 149.246
44 10 142.878
45 10 143.959
46 10 142.522
47 10 138.793
48 10 146.593
49 10 143.003
50 10 143.37
51 10 146.81
52 10 142.578
53 10 150.811
54 10 161.964
55 10 143.247
56 10 137.465
57 10 136.186
58 10 142.931
59 10 146.853
60 10 142.386
61 10 150.55
62 10 148.016
63 10 163.569
64 10 143.045
65 10 148.086
66 10 145.002
67 10 136.346
68 10 138.343
69 10 151.395
70 10 147.72
71 10 147.958
72 10 143.042
73 10 144.482
74 10 143.919
75 12 179.773
76 12 176.958
77 10 179.628
78 10 179.826
79 10 179.756
80 10 179.604
81 10 179.264
82 33 180
83 33 180
84 5 180

Atoms # full

876 1 8 -4.7433488575600002e-01 9.7332778024101444e+01 -3.7447610078120990e+00 -6.0923220502151780e+00 0 0 0
873 1 5 4.1569411424399999e-01 9.8357580588573015e+01 -2.4332561947769138e+00 -8.3129826318673299e+00 0 0 0
874 1 5 3.8477411424399999e-01 9.7046776443467593e+01 -1.5447194291557258e+00 -7.5355847991401159e+00 0 0 0
856 1 1 1.1566511424400000e-01 9.8137891771635694e+01 -1.6057670165589712e+00 -7.6284448136820862e+00 0 0 0
875 1 7 -3.9433488575600001e-01 9.8732388681727855e+01 -1.8872512608176037e+00 -6.3329558354586535e+00 0 0 0
857 1 6 -7.1472857558100003e-03 9.8093593605142701e+01 -2.9601775784252111e+00 -5.5705638321628399e+00 0 0 0
871 1 5 3.5665114244199998e-02 9.7114496748992494e+01 2.5387403622470078e-01 -5.7833432720444993e+00 0 0 0
849 1 1 -8.4334885755800004e-02 9.8678254903846153e+01 -2.8255741814280078e-01 -8.2134306584961152e+00 0 0 0
850 1 1 -1.4433488575600001e-01 1.0021603077231447e+02 -2.5090250868649805e-01 -8.4121240555604420e+00 0 0 0
864 1 5 3.5665114244199998e-02 9.8285792063282074e+01 -2.8366079764349317e-01 -9.2374392365223823e+00 0 0 0
859 1 5 3.5665114244199998e-02 1.0053600013785368e+02 -1.2195652202361635e+00 -8.8069812548754438e+00 0 0 0
860 1 5 3.5665114244199998e-02 1.0063853069599735e+02 -3.7902165205276434e-01 -6.2822545486056196e+00 0 0 0
858 1 5 3.5665114244199998e-02 1.0045797927541304e+02 4.7604315108770690e-01 -9.1952312342125300e+00 0 0 0
852 1 1 -1.4433488575600001e-01 1.0252905876398819e+02 -3.1549060092472797e-01 -7.2884498250226306e+00 0 0 0
866 1 5 3.5665114244199998e-02 1.0383695798567108e+02 -2.0123829310566443e+00 -6.9672537671652695e+00 0 0 0
863 1 5 3.5665114244199998e-02 1.0285579346591426e+02 -2.1409753334678122e-01 -8.3275251543754880e+00 0 0 0
853 1 1 -2.0433488575600001e-01 1.0279444112987244e+02 -1.7469010666516993e+00 -6.8140341938805378e+00 0 0 0
865 1 5 3.5665114244199998e-02 1.0257202422595719e+02 -1.8646007014642274e+00 -5.7469263377619981e+00 0 0 0
867 1 5 3.5665114244199998e-02 1.0218501312742062e+02 -2.4648568364103864e+00 -7.3677297447586385e+00 0 0 0
851 1 1 5.3120411424400005e-01 1.0105243982155044e+02 8.7735191756041497e-02 -7.1593366886897662e+00 0 0 0
862 1 5 1.4377911424400000e-01 1.0314659899380226e+02 3.7918900378202886e-01 -6.7093453468259421e+00 0 0 0
872 1 5 3.5665114244199998e-02 9.8773798315661793e+01 7.9174940200661093e-01 -5.5388616782821867e+00 0 0 0
855 1 1 -2.0433488575600001e-01 9.7857121129871672e+01 9.9725749610135450e-01 -6.0753620642882691e+00 0 0 0
869 1 5 3.5665114244199998e-02 9.7122767386827149e+01 1.2275972418804240e+00 -8.0777452651149240e+00 0 0 0
870 1 5 1.3665311424400001e-01 9.7491838549017061e+01 1.9686980144889836e+00 -5.7388705213647651e+00 0 0 0
868 1 5 3.5665114244199998e-02 9.8724104211488282e+01 1.8580613827404364e+00 -7.8403256318415000e+00 0 0 0
854 1 1 -1.4433488575600001e-01 9.8081203777092398e+01 1.0113608722380518e+00 -7.5929389535718723e+00 0 0 0
861 1 5 3.5665114244199998e-02 1.0099401306398691e+02 1.1590554721754349e+00 -6.9772308819994482e+00 0 0 0
825 1 7 -3.9433488575600001e-01 9.1631072283943539e+01 -5.0664589061298937e+00 -3.3473428313535519e-01 0 0 0
741 1 1 1.1545111424399999e-01 9.2472795847879127e+01 -6.1921569396273943e+00 4.3947267052123075e-02 0 0 0
735 1 1 -6.3140857558100002e-03 9.2012237744025100e+01 -7.4599146091082584e+00 4.0852873528069789e-01 0 0 0
740 1 1 -4.5434185755800001e-02 9.3881861494050355e+01 -6.0163212841186366e+00 -7.0665269025367780e-02 0 0 0
744 1 1 -1.4005088575600000e-01 9.4587406524567029e+01 -4.8754869944070531e+00 -5.5355994357436344e-01 0 0 0
739 1 1 -7.9053085755800001e-02 9.4768929181219008e+01 -7.0666866988529220e+00 3.5746493115719508e-01 0 0 0
743 1 1 -6.0801185755800000e-02 9.5948921081569807e+01 -4.9115720213401488e+00 -4.3298063033653672e-01 0 0 0
742 1 2 -2.6656175755800000e-02 9.6509083727442743e+01 -6.5541380365089532e+00 1.6423752539177791e-01 0 0 0
831 1 4 -2.0857188575600000e-01 9.6930534769835830e+01 -4.9102110580816527e+00 -3.6178757771176464e+00 0 0 0
824 1 5 5.6651142441900004e-03 9.0145292271245069e+01 -3.7941589674971721e+00 3.6005279329185785e-01 0 0 0
745 1 5 1.2656411424399999e-01 9.4121004917837155e+01 -4.1018390463159236e+00 -1.1428584628584215e+00 0 0 0
818 1 5 3.5665114244199998e-02 9.2617110160376583e+01 -2.7157048763414053e+00 3.2230913317339771e-01 0 0 0
834 1 1 -3.8818085755800001e-02 9.6837392263384416e+01 -3.8222006197204519e+00 -6.8677654856459480e-01 0 0 0
830 1 3 2.0788611424400000e-01 9.7484936329958217e+01 -3.7110604128937417e+00 -3.2058908539418258e+00 0 0 0
829 1 1 3.3247714244199998e-02 9.7422836612294802e+01 -3.3034373146810774e+00 -1.8312597605655796e+00 0 0 0
826 1 1 -4.9818685755800000e-02 9.8111773565905125e+01 -2.8463985164927919e+00 -4.0457737545582972e+00 0 0 0
827 1 2 -1.5147488575599999e-01 9.8887269240648521e+01 -1.4335762260549414e+00 -3.1601489497231707e+00 0 0 0
828 1 1 -7.1566785755800000e-02 9.8162223789459276e+01 -2.0824171419573547e+00 -1.6188025860134452e+00 0 0 0
832 1 1 -9.7658575581400001e-04 9.8217767177688074e+01 -1.6055031990182298e+00 -3.2645960514293632e-01 0 0 0
835 1 1 -1.1320485755800001e-02 9.8860012860219001e+01 -4.4272946932055979e-01 2.2967870166431556e-01 0 0 0
836 1 1 -1.0813978575600000e-01 9.9055183328173257e+01 7.7354701073814058e-01 -3.6977885930602278e-01 0 0 0
840 1 5 1.4769311424400000e-01 9.8694094308179061e+01 1.0107758382242906e+00 -1.3549276905345098e+00 0 0 0
898 1 5 3.5665114244199998e-02 9.6822825850964151e+01 4.7394499402557013e+00 -4.0468520870019420e+00 0 0 0
893 1 1 -2.0433488575600001e-01 9.7395772672534747e+01 5.1200344379842377e+00 -3.1950805670606668e+00 0 0 0
888 1 5 2.2929311424400001e-01 9.9051523838320577e+01 6.1370518841326316e+00 -1.5873679834964609e+00 0 0 0
892 1 1 -7.9793857558100000e-03 9.8887676911880746e+01 5.2414891550132570e+00 -3.5405356354827551e+00 0 0 0
894 1 5 1.1715711424399999e-01 9.9254323258104222e+01 4.2678120196690186e+00 -3.8889298710281497e+00 0 0 0
877 1 1 -3.5515685755799997e-02 9.9749471203714180e+01 5.7430531238034632e+00 -2.3442585599812822e+00 0 0 0
899 1 1 1.1566511424400000e-01 1.0045532079707598e+02 4.5635822070213967e+00 -1.6409255532959481e+00 0 0 0
902 1 7 -3.9433488575600001e-01 9.9465150557302749e+01 3.6118502060693736e+00 -1.1616182668600163e+00 0 0 0
841 1 1 1.2826011424400000e-01 9.9671690933730275e+01 3.1723395405135006e+00 2.1544227552025982e-01 0 0 0
896 1 5 3.5665114244199998e-02 9.7231070360511310e+01 4.4429375942517702e+00 -2.3577259055118827e+00 0 0 0
897 1 5 3.5665114244199998e-02 9.6979070206372342e+01 6.0928814237302147e+00 -2.9230031974350075e+00 0 0 0
837 1 1 -4.0397285755799997e-02 9.9506391097192321e+01 1.7970544018502967e+00 5.1642528794501508e-01 0 0 0
895 1 5 3.5665114244199998e-02 9.8970192523274349e+01 5.9050879817581627e+00 -4.3993105845667815e+00 0 0 0
900 1 5 5.6651142441900004e-03 1.0111138335404299e+02 4.0472963111193172e+00 -2.3479950503505362e+00 0 0 0
901 1 5 5.6651142441900004e-03 1.0110044367411375e+02 4.9241576187502698e+00 -8.2642721350759940e-01 0 0 0
884 1 5 3.5665114244199998e-02 9.9077334202598323e+01 8.1402905174748739e+00 -2.6866589451911471e+00 0 0 0
879 1 1 2.3650911424400001e-01 1.0014758246768768e+02 8.1166275561021646e+00 -2.4192297411483983e+00 0 0 0
885 1 5 3.5665114244199998e-02 1.0060953827972234e+02 8.8331602984650957e+00 -3.1176482880447698e+00 0 0 0
891 1 5 3.5665114244199998e-02 9.9123526859900707e+01 1.0505210345205873e+01 -1.1070009336889151e+00 0 0 0
880 1 1 -1.4433488575600001e-01 1.0031794825227963e+02 8.6826437183301337e+00 -9.9959564535753931e-01 0 0 0
881 1 1 -2.2544288575599999e-01 1.0015690035407761e+02 1.0200774619558890e+01 -9.3102603244703497e-01 0 0 0
882 1 5 3.5665114244199998e-02 1.0084638804107348e+02 6.8041516635698382e+00 -3.8026666802915088e+00 0 0 0
878 1 1 1.3334014244200000e-02 1.0071592520248790e+02 6.8188609737082979e+00 -2.7115075859336835e+00 0 0 0
889 1 5 3.5665114244199998e-02 1.0044802818805361e+02 1.0565057099500626e+01 5.0452900103905907e-02 0 0 0
887 1 5 3.9804511424400002e-01 9.9591580548229842e+01 8.2174783321407183e+00 -3.3067378704065331e-01 0 0 0
890 1 5 3.5665114244199998e-02 1.0077994798006905e+02 1.0701164151113961e+01 -1.6631444043011903e+00 0 0 0
886 1 5 3.5665114244199998e-02 1.0129648367415571e+02 8.4085967398328805e+00 -6.1581335966886941e-01 0 0 0
883 1 5 3.5665114244199998e-02 1.0171701901422225e+02 6.4908596775119856e+00 -2.4275258252567222e+00 0 0 0
979 1 8 -4.7433488575600002e-01 1.0379232188088788e+02 9.4631495682261111e+00 8.5479667383821373e-02 0 0 0
977 1 5 3.8477411424399999e-01 1.0288567315009419e+02 1.1505180219625721e+01 -1.1342590629649649e+00 0 0 0
973 1 5 1.3665311424400001e-01 1.0029034500253368e+02 1.4680470560237888e+01 -8.4007264415596949e-01 0 0 0
958 1 1 -2.0433488575600001e-01 1.0075116189087586e+02 1.4853901478898148e+01 1.3244090068827458e-01 0 0 0
975 1 5 3.5665114244199998e-02 1.0122989234812681e+02 1.5833844280911425e+01 1.1277158505161290e-01 0 0 0
967 1 5 3.5665114244199998e-02 1.0246449852696573e+02 1.3702430863385477e+01 -1.5246269134799737e+00 0 0 0
962 1 5 3.5665114244199998e-02 1.0471606048789567e+02 1.4531593702070220e+01 -1.2281794831459878e+00 0 0 0
953 1 1 -1.4433488575600001e-01 1.0398416558427662e+02 1.4688627716870728e+01 -4.3264014408369639e-01 0 0 0
952 1 1 -8.4334885755800004e-02 1.0291046646803773e+02 1.3582429979134849e+01 -5.2768950076843635e-01 0 0 0
976 1 5 4.1569411424399999e-01 1.0450438312105879e+02 1.2150208228518176e+01 -9.7478195093414000e-01 0 0 0
957 1 1 -1.4433488575600001e-01 1.0174942760217230e+02 1.3742943904092229e+01 4.8149274880095211e-01 0 0 0
959 1 1 1.1566511424400000e-01 1.0350992671089595e+02 1.2157005338409247e+01 -5.2128559921607220e-01 0 0 0
961 1 5 3.5665114244199998e-02 1.0352222621655102e+02 1.5644226634291403e+01 -6.7679315993533173e-01 0 0 0
971 1 5 3.5665114244199998e-02 1.0120143501317082e+02 1.2811987212316390e+01 5.1750000210726443e-01 0 0 0
179 1 5 5.6651142441900004e-03 6.4298399296006224e+01 2.5112828375567140e+01 -3.4103248658736857e-01 0 0 0
178 1 1 1.1566511424400000e-01 6.4493536886529370e+01 2.5779475066016680e+01 5.0553597594901134e-01 0 0 0
171 1 1 -7.9793857558100000e-03 6.3754934993981635e+01 2.7538071058177696e+01 -1.1876821461759035e+00 0 0 0
173 1 5 1.1715711424399999e-01 6.2884293429273306e+01 2.6880498672479700e+01 -1.1497360840114443e+00 0 0 0
174 1 5 3.5665114244199998e-02 6.4255651781462831e+01 2.7317413607707341e+01 -2.1417318464165986e+00 0 0 0
156 1 1 -3.5515685755799997e-02 6.4696676637825831e+01 2.7231179438471543e+01 -1.9802361354873386e-03 0 0 0
157 1 1 1.3334014244200000e-02 6.6120191724894553e+01 2.7485683696000233e+01 -3.2893576896537724e-01 0 0 0
162 1 5 3.5665114244199998e-02 6.6438810505095532e+01 2.6685048687964127e+01 -1.0029637186211411e+00 0 0 0
161 1 5 3.5665114244199998e-02 6.6146660276553092e+01 2.8336738217789364e+01 -1.0258372836813796e+00 0 0 0
166 1 5 3.9804511424400002e-01 6.8666297792161885e+01 2.6918529526896499e+01 4.3156918220249546e-01 0 0 0
172 1 1 -2.0433488575600001e-01 6.3253705954200726e+01 2.8985769624295525e+01 -1.1965137726627679e+00 0 0 0
175 1 5 3.5665114244199998e-02 6.4082961403419489e+01 2.9694792558654264e+01 -1.2270796143397296e+00 0 0 0
176 1 5 3.5665114244199998e-02 6.2630194298761467e+01 2.9170930371302600e+01 -2.0690507894140069e+00 0 0 0
177 1 5 3.5665114244199998e-02 6.2655799957562458e+01 2.9208302499575911e+01 -3.0549767738360856e-01 0 0 0
165 1 5 3.5665114244199998e-02 6.8791651314393363e+01 2.8658598433426423e+01 2.8005497871349605e-01 0 0 0
718 1 5 3.5665114244199998e-02 8.6755674787628479e+01 -1.6375179692485531e+01 6.0040238472316299e+00 0 0 0
557 1 5 3.5665114244199998e-02 6.2052905135711107e+01 -1.3449706473510359e+01 5.4638876518762602e+00 0 0 0
615 1 5 3.5665114244199998e-02 7.2034107685802383e+01 -1.0592997632352532e+01 5.7266863018061311e+00 0 0 0
716 1 5 3.5665114244199998e-02 8.7871362242425676e+01 -1.5027225781784516e+01 5.7564559487779103e+00 0 0 0
642 1 5 1.2656411424399999e-01 8.6366623977034507e+01 -1.2146423511960048e+01 5.2644752328477376e+00 0 0 0
641 1 1 -1.4005088575600000e-01 8.6255756494268894e+01 -1.1117042463792215e+01 5.5894182202236733e+00 0 0 0
726 1 1 3.3247714244199998e-02 8.9368291907516834e+01 -1.1037010404500791e+01 4.5149148798032828e+00 0 0 0
717 1 5 3.5665114244199998e-02 8.6202007251320111e+01 -1.4899889820887269e+01 5.2014722876148314e+00 0 0 0
725 1 1 -7.1566785755800000e-02 9.0423292838894966e+01 -1.0793071363406378e+01 3.5673847334264739e+00 0 0 0
724 1 2 -1.5147488575599999e-01 9.1929894927630940e+01 -1.1739964172877755e+01 3.9692362437332456e+00 0 0 0
737 1 5 1.4769311424400000e-01 9.2499776611206002e+01 -1.0688602643032809e+01 7.4875293834593692e-01 0 0 0
727 1 3 2.0788611424400000e-01 8.9765313491679038e+01 -1.1992917667250493e+01 5.4919203214552663e+00 0 0 0
723 1 1 -4.9818685755800000e-02 9.1049457809829462e+01 -1.2413753095478047e+01 5.4365435737674304e+00 0 0 0
798 1 5 5.6651142441900004e-03 9.4145625820021777e+01 -1.0376488037869361e+01 2.6306605927579869e+00 0 0 0
794 1 5 3.5665114244199998e-02 9.4485212350257868e+01 -1.0679007203788236e+01 5.9720284705331679e+00 0 0 0
795 1 5 3.5665114244199998e-02 9.5311411855237736e+01 -1.1626985750977685e+01 4.7436845493279689e+00 0 0 0
797 1 5 5.6651142441900004e-03 9.5822585165934029e+01 -1.0688184023345094e+01 2.6469282728696495e+00 0 0 0
790 1 1 -2.0433488575600001e-01 9.5450340097427713e+01 -1.0864171275417846e+01 5.5114745488375849e+00 0 0 0
731 1 1 -3.8818085755800001e-02 8.8214815027985466e+01 -1.0311397083936155e+01 4.2913110527461003e+00 0 0 0
640 1 1 -6.0801185755800000e-02 8.7012377115448814e+01 -1.0134136304009104e+01 5.0237714107199904e+00 0 0 0
730 1 2 -4.1373185755799999e-02 8.8400454404367693e+01 -9.3637027769020484e+00 2.7485577724443848e+00 0 0 0
639 1 2 -2.6656175755800000e-02 8.6340310408635077e+01 -8.4635997574651505e+00 5.3824429964883587e+00 0 0 0
804 1 1 -6.0814085755800003e-02 8.9370737779718155e+01 -5.9152737119071146e+00 5.9544480933045660e+00 0 0 0
813 1 5 3.5665114244199998e-02 8.9490572666187575e+01 -6.9100712034913316e+00 5.5131393954794907e+00 0 0 0
823 1 5 5.6651142441900004e-03 9.0189241366668483e+01 -5.3316755876540052e+00 1.1667232738282713e+00 0 0 0
738 1 1 1.2826011424400000e-01 9.4313253393852634e+01 -8.2888849777824927e+00 8.5634413753321847e-01 0 0 0
808 1 5 3.5665114244199998e-02 9.0724828788403386e+01 -5.7760711069074455e+00 3.4579711893935170e+00 0 0 0
736 1 2 -9.1971185755800003e-02 9.0294420850382224e+01 -8.0309757276403442e+00 4.1731105017912790e-01 0 0 0
734 1 1 -4.0397285755799997e-02 9.2901786472732041e+01 -8.5294537291035919e+00 7.9742347337573249e-01 0 0 0
729 1 1 -9.7658575581400001e-04 9.0135321055342914e+01 -9.9062782710718036e+00 2.5536709874843484e+00 0 0 0
732 1 1 -1.1320485755800001e-02 9.0909403900350696e+01 -9.4280878863364244e+00 1.4525554236385361e+00 0 0 0
733 1 1 -1.0813978575600000e-01 9.2187942582942924e+01 -9.7238670722736344e+00 1.1250858533772772e+00 0 0 0
780 1 5 3.5665114244199998e-02 9.3261908692948467e+01 -8.4370411932501543e+00 3.4859226625422206e+00 0 0 0
807 1 5 3.5665114244199998e-02 9.1558627061200568e+01 -4.9078920157681019e+00 4.7211702261839426e+00 0 0 0
802 1 1 -1.4433488575600001e-01 9.0695264411536172e+01 -4.8523057761798372e+00 4.0526592903290091e+00 0 0 0
783 1 5 3.5665114244199998e-02 9.4089540837988451e+01 -4.8525079344474253e+00 4.0891688372424149e+00 0 0 0
784 1 5 3.9804511424400002e-01 9.4412643293154233e+01 -5.9591238647643809e+00 2.8026521519681693e+00 0 0 0
775 1 1 1.3334014244200000e-02 9.4035719878953472e+01 -8.2107046136161603e+00 4.2012156136704020e+00 0 0 0
779 1 5 3.5665114244199998e-02 9.3641210889987235e+01 -8.7655063913027682e+00 5.0519135367392281e+00 0 0 0
782 1 5 3.5665114244199998e-02 9.3441140505340698e+01 -6.5842760443286785e+00 5.2990530184736588e+00 0 0 0
777 1 1 -1.4433488575600001e-01 9.4688027859851900e+01 -5.7231524517427745e+00 3.8183702222356350e+00 0 0 0
776 1 1 2.3650911424400001e-01 9.4333206857027790e+01 -6.8959040789340591e+00 4.7460246280312539e+00 0 0 0
796 1 1 1.1566511424400000e-01 9.5092965349788741e+01 -9.8842772628899009e+00 2.5846133235510131e+00 0 0 0
781 1 5 3.5665114244199998e-02 9.5094870437258820e+01 -6.9701850262889780e+00 5.5159190173248609e+00 0 0 0
789 1 1 -7.9793857558100000e-03 9.6071283279217496e+01 -9.5713685525233245e+00 4.9420854020643166e+00 0 0 0
792 1 5 3.5665114244199998e-02 9.7081132652680978e+01 -9.7995049859240240e+00 4.5907076754568319e+00 0 0 0
799 1 7 -3.9433488575600001e-01 9.5324943425206769e+01 -9.2469355690218542e+00 1.2816768161331749e+00 0 0 0
791 1 5 1.1715711424399999e-01 9.6215546847931449e+01 -8.8657591887031888e+00 5.7551219463610437e+00 0 0 0
774 1 1 -3.5515685755799997e-02 9.5291569707030320e+01 -8.9015864022865294e+00 3.7727473470621846e+00 0 0 0
785 1 5 2.2929311424400001e-01 9.5960335113150109e+01 -8.1515474552643852e+00 3.3751374137844108e+00 0 0 0
786 1 5 3.5665114244199998e-02 9.6447092943725011e+01 -4.9791619940628973e+00 4.8621830859928155e+00 0 0 0
787 1 5 3.5665114244199998e-02 9.6832802338603500e+01 -6.1333735162324885e+00 3.5980391773698583e+00 0 0 0
778 1 1 -2.2544288575599999e-01 9.6169540871207005e+01 -5.3221134011215998e+00 3.8651982894330135e+00 0 0 0
803 1 1 -1.4433488575600001e-01 8.9398635944356442e+01 -4.8310509805499358e+00 4.8771871417976982e+00 0 0 0
810 1 5 3.5665114244199998e-02 8.8541978395383950e+01 -4.9619501437008795e+00 4.2138053585659812e+00 0 0 0
809 1 5 3.5665114244199998e-02 8.9272851018641447e+01 -3.8479332712313714e+00 5.3496704861272795e+00 0 0 0
805 1 5 3.5665114244199998e-02 8.9859232068150774e+01 -3.2324007645894719e+00 2.8503465003276460e+00 0 0 0
822 1 1 1.1566511424400000e-01 9.0822661654553954e+01 -4.5487684248981726e+00 7.6764161234300121e-01 0 0 0
811 1 5 3.5665114244199998e-02 9.2436669764635496e+01 -4.6513058553995981e+00 2.1717372679760913e+00 0 0 0
815 1 1 -1.4433488575600001e-01 9.2441917043470198e+01 -2.6572525239846279e+00 1.3953776256964543e+00 0 0 0
817 1 5 1.7439211424400000e-01 9.1827055678069584e+01 -1.7676517876197118e+00 1.5499013793143925e+00 0 0 0
800 1 1 -8.4334885755800004e-02 9.1688101323244268e+01 -3.9147906326731041e+00 1.8830797954845406e+00 0 0 0
821 1 5 3.5665114244199998e-02 9.4258892542617517e+01 -1.5319976646464710e+00 1.7994605444224456e+00 0 0 0
801 1 1 -1.4433488575600001e-01 9.0845627203739539e+01 -3.6206180523496920e+00 3.1393912895511384e+00 0 0 0
806 1 5 3.5665114244199998e-02 9.1314787251740199e+01 -2.8207358505458577e+00 3.7199840832203370e+00 0 0 0
816 1 1 -2.0433488575600001e-01 9.3791023953205652e+01 -2.4716926545172848e+00 2.0984263061485007e+00 0 0 0
819 1 5 3.5665114244199998e-02 9.4473595303422826e+01 -3.2744867778092233e+00 1.8475729479268501e+00 0 0 0
820 1 5 3.5665114244199998e-02 9.3682773908737829e+01 -2.4557414295479294e+00 3.1834359355477222e+00 0 0 0
833 1 2 -4.1373185755799999e-02 9.7308776896417555e+01 -2.7822545359729953e+00 7.4035228363389671e-01 0 0 0
788 1 5 3.5665114244199998e-02 9.6359125894643682e+01 -4.5041201077487116e+00 3.1705252732540954e+00 0 0 0
921 1 5 3.5665114244199998e-02 9.9383848675617955e+01 -4.4179851610166060e-01 5.4483418051126904e+00 0 0 0
839 1 2 -9.1971185755800003e-02 9.9471181267653833e+01 -4.3942118148665149e-01 1.9780178433096052e+00 0 0 0
919 1 1 -2.0433488575600001e-01 9.7293562204248914e+01 -8.2205622471788564e-01 5.1606090271862000e+00 0 0 0
922 1 5 3.5665114244199998e-02 9.7382449626138580e+01 -1.8629324694572391e+00 5.4773891284896852e+00 0 0 0
918 1 1 -1.4433488575600001e-01 9.8434718542329307e+01 2.4291455449311678e-02 5.7378801918128826e+00 0 0 0
923 1 5 3.5665114244199998e-02 9.7299009219251047e+01 -8.0804166094276808e-01 4.0689127377426582e+00 0 0 0
924 1 5 3.5665114244199998e-02 9.6323398820287835e+01 -4.5330133215567475e-01 5.4919130889842531e+00 0 0 0
915 1 5 3.5665114244199998e-02 9.5287589072260644e+01 4.9561407424214554e+00 3.3656788611367778e+00 0 0 0
838 1 1 -6.3140857558100002e-03 9.9787020778381674e+01 1.3352457750895139e+00 1.8414072190311392e+00 0 0 0
911 1 5 3.5665114244199998e-02 9.5975312043361797e+01 2.4852348090575784e+00 4.4357908262734567e+00 0 0 0
903 1 1 -8.4334885755800004e-02 9.8401999832494255e+01 1.4922877233712810e+00 5.2556007343790050e+00 0 0 0
914 1 5 3.5665114244199998e-02 9.8063176928054119e+01 1.4810644878814838e+00 4.2151151656638088e+00 0 0 0
845 1 2 -2.6656175755800000e-02 9.9189370111201598e+01 5.7795858576135597e+00 1.3907404833221770e+00 0 0 0
925 1 1 1.1566511424400000e-01 9.9817360376655913e+01 2.1045034681085513e+00 5.2710190098968255e+00 0 0 0
926 1 5 5.6651142441900004e-03 9.9769831027362883e+01 3.1743819461158123e+00 5.2835214832034714e+00 0 0 0
913 1 5 3.5665114244199998e-02 9.7610539153166570e+01 4.0349396058327338e+00 3.6260894416614637e+00 0 0 0
842 1 1 -7.9053085755800001e-02 9.9740196848064826e+01 4.0474075265856806e+00 1.2960156841676893e+00 0 0 0
905 1 1 -1.4433488575600001e-01 9.6419544880161453e+01 3.1500446410953913e+00 5.1856126715161386e+00 0 0 0
907 1 1 -6.0814085755800003e-02 9.6018493384174533e+01 5.4056447084357790e+00 4.0403607043522438e+00 0 0 0
906 1 1 -1.4433488575600001e-01 9.7052054105878696e+01 4.3708478057224625e+00 4.4938843755403655e+00 0 0 0
912 1 5 3.5665114244199998e-02 9.7776450445328436e+01 4.8530905349730391e+00 5.1579585480230019e+00 0 0 0
844 1 1 1.1545111424399999e-01 1.0024845908941795e+02 2.2038422926370438e+00 2.8441750765900373e+00 0 0 0
846 1 1 -6.0801185755800000e-02 1.0011580018301028e+02 5.9323238808466678e+00 2.9720178564360902e+00 0 0 0
843 1 1 -4.5434185755800001e-02 1.0022889070411100e+02 3.6151075803158732e+00 2.5729177241241450e+00 0 0 0
916 1 5 3.5665114244199998e-02 9.5482650700026454e+01 5.8339426914318402e+00 4.8889594272016685e+00 0 0 0
928 1 7 -3.9433488575600001e-01 1.0062134867975253e+02 1.6318508712862794e+00 4.1445315495280877e+00 0 0 0
847 1 1 -1.4005088575600000e-01 1.0058044835317575e+02 4.7200757392479034e+00 3.3995469626791901e+00 0 0 0
917 1 5 3.5665114244199998e-02 9.6507707824760871e+01 6.2210400494924407e+00 3.5056711577266899e+00 0 0 0
910 1 5 3.5665114244199998e-02 9.5585076810747836e+01 3.4831399085703714e+00 5.8093101347350453e+00 0 0 0
848 1 5 1.2656411424399999e-01 1.0137500525780170e+02 4.6748194743043543e+00 4.1372772544062588e+00 0 0 0
1026 1 5 3.5665114244199998e-02 9.3352348379239075e+01 1.1808005329636003e+01 5.5326154755924977e+00 0 0 0
1027 1 5 3.5665114244199998e-02 9.4207057957249532e+01 1.1222859175494122e+01 4.0980537207191103e+00 0 0 0
935 1 1 -9.7658575581400001e-04 1.0017432583079011e+02 9.3023655088131569e+00 5.1553130090610031e+00 0 0 0
936 1 2 -4.1373185755799999e-02 9.9372760661325401e+01 7.6549628653436104e+00 5.0657497242112033e+00 0 0 0
937 1 1 -3.8818085755800001e-02 1.0034642264045264e+02 7.1993110469224142e+00 3.5838063091639123e+00 0 0 0
1020 1 5 3.5665114244199998e-02 9.8519824022894682e+01 1.0980332046627261e+01 2.0988175645888640e+00 0 0 0
931 1 1 -7.1566785755800000e-02 1.0107861879143042e+02 9.3865930627118210e+00 4.1200321303483030e+00 0 0 0
934 1 4 -2.0857188575600000e-01 1.0255059851869316e+02 7.3882094295087217e+00 1.4182354737865328e+00 0 0 0
933 1 3 2.0788611424400000e-01 1.0218315588367506e+02 8.4290447358647906e+00 2.2521674253589730e+00 0 0 0
929 1 1 -4.9818685755800000e-02 1.0272575481690362e+02 9.6702384471088187e+00 2.1916319841708476e+00 0 0 0
960 1 6 -7.1472857558100003e-03 1.0351355555810697e+02 1.0211101451184797e+01 9.9521993437254930e-01 0 0 0
930 1 2 -1.5147488575599999e-01 1.0218973642324808e+02 1.0731269224123462e+01 3.5962241652223592e+00 0 0 0
932 1 1 3.3247714244199998e-02 1.0119219227085243e+02 8.2371117335604467e+00 3.2634771612960995e+00 0 0 0
978 1 7 -3.9433488575600001e-01 1.0362309755150021e+02 1.1654576858921569e+01 8.4796304435853531e-01 0 0 0
1022 1 1 -2.0433488575600001e-01 9.3679637950781427e+01 1.2080620234746171e+01 4.5260344558390440e+00 0 0 0
1025 1 5 3.5665114244199998e-02 9.2785420520209954e+01 1.2251599982620011e+01 3.9256814368334747e+00 0 0 0
1021 1 1 -1.4433488575600001e-01 9.4573860216330360e+01 1.3327487821844072e+01 4.5448090144392710e+00 0 0 0
1024 1 5 3.5665114244199998e-02 9.3986566766150773e+01 1.4199414553267857e+01 4.8594553221052372e+00 0 0 0
1023 1 5 1.7439211424400000e-01 9.4883148282363521e+01 1.3539175645804610e+01 3.5220548632886497e+00 0 0 0
974 1 5 3.5665114244199998e-02 9.9951745961691131e+01 1.4890922402697278e+01 8.7312878596917354e-01 0 0 0
1018 1 5 3.5665114244199998e-02 9.8696072720887429e+01 1.2179736182245682e+01 8.1902242153900751e-01 0 0 0
1013 1 5 3.5665114244199998e-02 9.8047514242567416e+01 1.2029190081791544e+01 4.5062360451331189e+00 0 0 0
1012 1 5 3.5665114244199998e-02 9.6712060732855562e+01 1.4746095701791729e+01 4.2528637467344659e+00 0 0 0
1010 1 1 -6.0814085755800003e-02 9.8751001669581939e+01 1.2028062982176060e+01 1.8938712818648291e+00 0 0 0
1015 1 5 3.5665114244199998e-02 9.6760318735081327e+01 1.2617837676903713e+01 2.4285244099121339e+00 0 0 0
1019 1 5 3.5665114244199998e-02 9.9774387268716950e+01 1.2209881099683466e+01 2.2094783619748872e+00 0 0 0
1009 1 1 -1.4433488575600001e-01 9.7776362917440593e+01 1.2960509076275708e+01 2.6134802407746838e+00 0 0 0
1016 1 5 3.5665114244199998e-02 9.7853908166511687e+01 1.3960946430918135e+01 2.1835047248355433e+00 0 0 0
990 1 5 3.9804511424400002e-01 9.9567709535276236e+01 1.5643864637917497e+01 3.5013849085735234e+00 0 0 0
1008 1 1 -1.4433488575600001e-01 9.8041484908095242e+01 1.3029042345170096e+01 4.1184654422281204e+00 0 0 0
1017 1 5 3.5665114244199998e-02 9.6048596032692117e+01 1.2098500098480596e+01 5.4664350782788000e+00 0 0 0